/*--------------------------------*- C++ -*----------------------------------*\
  =========                 |
  \\      /  F ield         | OpenFOAM: The Open Source CFD Toolbox
   \\    /   O peration     | Website:  https://openfoam.org
    \\  /    A nd           | Version:  7
     \\/     M anipulation  |
\*---------------------------------------------------------------------------*/
FoamFile
{
    version     2.0;
    format      ascii;
    class       volVectorField;
    location    "0.000";
    object      U;
}
// * * * * * * * * * * * * * * * * * * * * * * * * * * * * * * * * * * * * * //

dimensions      [0 1 -1 0 0 0 0];

internalField   nonuniform List<vector> 
60
(
(9.32865e-23 9.32865e-23 -3.361e-06)
(9.32865e-23 9.32865e-23 -3.361e-06)
(-9.32865e-23 -0 -3.361e-06)
(-4.86774e-37 -9.32865e-23 -3.361e-06)
(9.32865e-23 -9.32865e-23 -3.361e-06)
(9.32865e-23 9.32865e-23 -3.361e-06)
(-2.48565e-37 9.32865e-23 -3.361e-06)
(-9.32865e-23 -0 -3.361e-06)
(9.32865e-23 -0 -3.361e-06)
(-9.32865e-23 -9.32865e-23 -3.361e-06)
(-1.86573e-22 -9.32865e-23 -3.361e-06)
(1.86573e-22 1.86573e-22 -3.361e-06)
(1.86573e-22 1.86573e-22 -3.361e-06)
(-2.7986e-22 -2.7986e-22 -3.361e-06)
(-0 -0 -3.361e-06)
(2.7986e-22 1.86573e-22 -3.361e-06)
(-1.86573e-22 -1.86573e-22 -3.361e-06)
(2.07138e-38 1.03569e-38 -3.361e-06)
(9.32865e-23 9.32865e-23 -3.361e-06)
(1.55353e-36 1.86573e-22 -3.361e-06)
(9.32865e-23 -2.07138e-38 -3.361e-06)
(-0 -1.86573e-22 -3.361e-06)
(-2.7986e-22 -9.32865e-23 -3.361e-06)
(-6.1727e-36 9.32865e-23 -3.361e-06)
(3.73146e-22 1.86573e-22 -3.361e-06)
(-1.86573e-22 -9.32865e-23 -3.361e-06)
(-2.7986e-22 -1.86573e-22 -3.361e-06)
(2.7986e-22 9.32865e-23 -3.361e-06)
(-6.21413e-36 9.32865e-23 -3.361e-06)
(-2.7986e-22 -1.86573e-22 -3.361e-06)
(-0 -1.03569e-38 -3.361e-06)
(-0 -1.04605e-36 -3.361e-06)
(1.86573e-22 -1.04605e-36 -3.361e-06)
(9.32865e-23 9.32865e-23 -3.361e-06)
(-1.04605e-36 9.32865e-23 -3.361e-06)
(-9.32865e-23 -1.03569e-38 -3.361e-06)
(-1.86573e-22 -1.86573e-22 -3.361e-06)
(2.7986e-22 9.32865e-23 -3.361e-06)
(1.86573e-22 9.32865e-23 -3.361e-06)
(-1.03569e-36 -1.03569e-36 -3.361e-06)
(-1.86573e-22 -8.17014e-69 -3.361e-06)
(-1.86573e-22 -9.32865e-23 -3.361e-06)
(-1.04605e-36 -0 -3.361e-06)
(-0 -0 -3.361e-06)
(1.86573e-22 -0 -3.361e-06)
(-1.03569e-36 -9.32865e-23 -3.361e-06)
(-1.04605e-36 -1.04605e-36 -3.361e-06)
(-9.32865e-23 -1.03569e-38 -3.361e-06)
(-4.16347e-36 -2.08173e-36 -3.361e-06)
(-2.09209e-36 -9.32865e-23 -3.361e-06)
(-1.86573e-22 -9.32865e-23 -3.361e-06)
(1.86573e-22 2.7986e-22 -3.361e-06)
(1.63403e-68 -9.32865e-23 -3.361e-06)
(-4.16347e-36 -6.21413e-36 -3.361e-06)
(4.14275e-36 9.32865e-23 -3.361e-06)
(-1.86573e-22 -9.32865e-23 -3.361e-06)
(1.86573e-22 9.32865e-23 -3.361e-06)
(1.86573e-22 -0 -3.361e-06)
(-0 9.32865e-23 -3.361e-06)
(-0 9.32865e-23 -3.361e-06)
)
;

boundaryField
{
    top
    {
        type            extrapolatedCalculated;
        value           uniform (-0 9.32865e-23 -3.361e-06);
    }
    left
    {
        type            empty;
    }
    right
    {
        type            empty;
    }
    front
    {
        type            empty;
    }
    back
    {
        type            empty;
    }
    bottom
    {
        type            extrapolatedCalculated;
        value           uniform (9.32865e-23 9.32865e-23 -3.361e-06);
    }
}


// ************************************************************************* //
